/*--------------------------------*- C++ -*----------------------------------*\
| =========                 |                                                 |
| \\      /  F ield         | OpenFOAM: The Open Source CFD Toolbox           |
|  \\    /   O peration     | Version:  4.1                                   |
|   \\  /    A nd           | Web:      www.OpenFOAM.org                      |
|    \\/     M anipulation  | Input file written by Dennis Thuy               |
\*---------------------------------------------------------------------------*/
FoamFile
{
    version     2.0;
    format      ascii;
    class       IOobject;
    location    "0";
    object      Al;
}
// * * * * * * * * * * * * * * * * * * * * * * * * * * * * * * * * * * * * * //

MWMelt          28.9;  // Molecular weight of the melt
RMelt           3000; // Melt compressibility factor
rho0Melt        2346.3; // Reference density of the melt
CpMelt          921.1; // Melt heat capacity
HfMelt          3.96e5; // Melt heat of fusion
muMelt          0.0011; // Melt dynamic viscosity
PrMelt          0.0043; // Melt Prandtl number
sigmaMelt       0.8545; // Melt surface tension at 100K superheat
TMelt           933; // Melting temperature

// ************************************************************************* //
