/*--------------------------------*- C++ -*----------------------------------*\
| =========                 |                                                 |
| \\      /  F ield         | OpenFOAM: The Open Source CFD Toolbox           |
|  \\    /   O peration     | Version:  4.1                                   |
|   \\  /    A nd           | Web:      www.OpenFOAM.org                      |
|    \\/     M anipulation  | Input file written by Dennis Thuy               |
\*---------------------------------------------------------------------------*/
FoamFile
{
    version     2.0;
    format      ascii;
    class       IOobject;
    location    "0";
    object      Cu;
}
// * * * * * * * * * * * * * * * * * * * * * * * * * * * * * * * * * * * * * //

MWMelt          63.546;  // Molecular weight of the melt
RMelt           3000; // Melt compressibility factor
rho0Melt        7916.6; // Reference density of the melt
CpMelt          376.812; // Melt heat capacity
HfMelt          2.06e5; // Melt heat of fusion
muMelt          0.00343; // Melt dynamic viscosity
PrMelt          0.0033; // Melt Prandtl number
sigmaMelt       1.3196; // Melt surface tension at 100K superheat
TMelt           1356; // Melting temperature

// ************************************************************************* //
