/*--------------------------------*- C++ -*----------------------------------*\
| =========                 |                                                 |
| \\      /  F ield         | OpenFOAM: The Open Source CFD Toolbox           |
|  \\    /   O peration     | Version:  4.1                                   |
|   \\  /    A nd           | Web:      www.OpenFOAM.org                      |
|    \\/     M anipulation  | Input file written by Dennis Thuy               |
\*---------------------------------------------------------------------------*/
FoamFile
{
    version     2.0;
    format      ascii;
    class       IOobject;
    location    "0";
    object      Ar;
}
// * * * * * * * * * * * * * * * * * * * * * * * * * * * * * * * * * * * * * //

MWGas       39.95;  // Molecular weight of the gas
CpGas       520;  // Heat capacity of the gas
HfGas       1.19e3;  // Enthalpy of formation
muGas       2.13e-5;  // Dynamic viscosity of the gas
PrGas       0.699; // Prandtl number of the gas

// ************************************************************************* //
