/*--------------------------------*- C++ -*----------------------------------*\
| =========                 |                                                 |
| \\      /  F ield         | OpenFOAM: The Open Source CFD Toolbox           |
|  \\    /   O peration     | Version:  4.1                                   |
|   \\  /    A nd           | Web:      www.OpenFOAM.org                      |
|    \\/     M anipulation  | Input file written by Dennis Thuy               |
\*---------------------------------------------------------------------------*/
FoamFile
{
    version     2.0;
    format      ascii;
    class       IOobject;
    location    "0";
    object      N2;
}
// * * * * * * * * * * * * * * * * * * * * * * * * * * * * * * * * * * * * * //

MWGas       28.01;  // Molecular weight of the gas
CpGas       979;  // Heat capacity of the gas
HfGas       726;  // Enthalpy of formation
muGas       1.66e-5;  // Dynamic viscosity of the gas
PrGas       0.67; // Prandtl number of the gas

// ************************************************************************* //
